
                                 *****************
                                 * O   R   C   A *
                                 *****************

           --- An Ab Initio, DFT and Semiempirical electronic structure package ---

                  #######################################################
                  #                        -***-                        #
                  #          Department of theory and spectroscopy      #
                  #               Directorship: Frank Neese             #
                  #        Max Planck Institute fuer Kohlenforschung    #
                  #                Kaiser Wilhelm Platz 1               #
                  #                 D-45470 Muelheim/Ruhr               #
                  #                      Germany                        #
                  #                                                     #
                  #                  All rights reserved                #
                  #                        -***-                        #
                  #######################################################


                         Program Version 4.2.1 -  RELEASE  -


 With contributions from (in alphabetic order):
   Daniel Aravena         : Magnetic Suceptibility
   Michael Atanasov       : Ab Initio Ligand Field Theory (pilot matlab implementation)
   Alexander A. Auer      : GIAO ZORA, VPT2
   Ute Becker             : Parallelization
   Giovanni Bistoni       : ED, misc. LED, open-shell LED, HFLD
   Martin Brehm           : Molecular dynamics
   Dmytro Bykov           : SCF Hessian
   Vijay G. Chilkuri      : MRCI spin determinant printing, contributions to CSF-ICE
   Dipayan Datta          : RHF DLPNO-CCSD density
   Achintya Kumar Dutta   : EOM-CC, STEOM-CC
   Dmitry Ganyushin       : Spin-Orbit,Spin-Spin,Magnetic field MRCI
   Miquel Garcia          : C-PCM Hessian, Gaussian charge scheme
   Yang Guo               : DLPNO-NEVPT2, CIM, IAO-localization
   Andreas Hansen         : Spin unrestricted coupled pair/coupled cluster methods
   Benjamin Helmich-Paris : CASSCF linear response (MC-RPA)
   Lee Huntington         : MR-EOM, pCC
   Robert Izsak           : Overlap fitted RIJCOSX, COSX-SCS-MP3, EOM
   Christian Kollmar      : KDIIS, OOCD, Brueckner-CCSD(T), CCSD density
   Simone Kossmann        : Meta GGA functionals, TD-DFT gradient, OOMP2, MP2 Hessian
   Martin Krupicka        : AUTO-CI
   Lucas Lang             : DCDCAS
   Dagmar Lenk            : GEPOL surface, SMD
   Dimitrios Liakos       : Extrapolation schemes; Compound Job, initial MDCI parallelization
   Dimitrios Manganas     : Further ROCIS development; embedding schemes
   Dimitrios Pantazis     : SARC Basis sets
   Taras Petrenko         : DFT Hessian,TD-DFT gradient, ASA, ECA, R-Raman, ABS, FL, XAS/XES, NRVS
   Peter Pinski           : DLPNO-MP2, DLPNO-MP2 Gradient
   Christoph Reimann      : Effective Core Potentials
   Marius Retegan         : Local ZFS, SOC
   Christoph Riplinger    : Optimizer, TS searches, QM/MM, DLPNO-CCSD(T), (RO)-DLPNO pert. Triples
   Tobias Risthaus        : Range-separated hybrids, TD-DFT gradient, RPA, STAB
   Michael Roemelt        : Original ROCIS implementation
   Masaaki Saitow         : Open-shell DLPNO-CCSD energy and density
   Barbara Sandhoefer     : DKH picture change effects
   Avijit Sen             : IP-ROCIS
   Kantharuban Sivalingam : CASSCF convergence, NEVPT2, FIC-MRCI
   Bernardo de Souza      : ESD, SOC TD-DFT
   Georgi Stoychev        : AutoAux, RI-MP2 NMR
   Willem Van den Heuvel  : Paramagnetic NMR
   Boris Wezisla          : Elementary symmetry handling
   Frank Wennmohs         : Technical directorship


 We gratefully acknowledge several colleagues who have allowed us to
 interface, adapt or use parts of their codes:
   Stefan Grimme, W. Hujo, H. Kruse,             : VdW corrections, initial TS optimization,
                  C. Bannwarth                     DFT functionals, gCP, sTDA/sTD-DF
   Ed Valeev, F. Pavosevic, A. Kumar             : LibInt (2-el integral package), F12 methods
   Garnet Chan, S. Sharma, J. Yang, R. Olivares  : DMRG
   Ulf Ekstrom                                   : XCFun DFT Library
   Mihaly Kallay                                 : mrcc  (arbitrary order and MRCC methods)
   Andreas Klamt, Michael Diedenhofen            : otool_cosmo (COSMO solvation model)
   Jiri Pittner, Ondrej Demel                    : Mk-CCSD
   Frank Weinhold                                : gennbo (NPA and NBO analysis)
   Christopher J. Cramer and Donald G. Truhlar   : smd solvation model
   Lars Goerigk                                  : TD-DFT with DH, B97 family of functionals
   V. Asgeirsson, H. Jonsson                     : NEB implementation
   FAccTs GmbH                                   : IRC, NEB, NEB-TS, Multilevel, MM, QM/MM, CI optimization
   S Lehtola, MJT Oliveira, MAL Marques          : LibXC Library


 Your calculation uses the libint2 library for the computation of 2-el integrals
 For citations please refer to: http://libint.valeyev.net

 Your ORCA version has been built with support for libXC version: 4.2.3
 For citations please refer to: https://tddft.org/programs/libxc/

 This ORCA versions uses:
   CBLAS   interface :  Fast vector & matrix operations
   LAPACKE interface :  Fast linear algebra routines


----- Orbital basis set information -----
Your calculation utilizes the basis: ma-def2-TZVPP
   F. Weigend and R. Ahlrichs, Phys. Chem. Chem. Phys. 7, 3297 (2005).
   J. Zheng, X. Xu and D. G. Truhlar, Theor. Chem. Acc. 128, 295 (2011).

================================================================================
                                        WARNINGS
                       Please study these warnings very carefully!
================================================================================


WARNING: Geometry Optimization
  ===> : Switching off AutoStart
         For restart on a previous wavefunction, please use MOREAD

INFO   : the flag for use of LIBINT has been found!

================================================================================
                                       INPUT FILE
================================================================================
NAME = Li9F9-RHF-madef2TZVPP-OPT-FREQ.inp
|  1> ! RHF ma-def2-TZVPP VeryTightSCF OPT FREQ
|  2> %maxcore 9000
|  3> 
|  4> *xyz 0 1 
|  5>   F      4.903665    0.000000   -0.000000
|  6>   Li     4.546353    1.654742    0.000000
|  7>   F      3.755960    3.151841    0.000000
|  8>   Li     2.418965    4.190333    0.000000
|  9>   F      0.851472    4.829714    0.000000
| 10>   Li    -0.840185    4.765370    0.000000
| 11>   F     -2.451786    4.247058   -0.000000
| 12>   Li    -3.706195    3.110235   -0.000000
| 13>   F     -4.607473    1.677168   -0.000000
| 14>   Li    -4.837888   -0.000000   -0.000000
| 15>   F     -4.607473   -1.677168    0.000000
| 16>   Li    -3.706195   -3.110235    0.000000
| 17>   F     -2.451786   -4.247058    0.000000
| 18>   Li    -0.840185   -4.765370    0.000000
| 19>   F      0.851472   -4.829714   -0.000000
| 20>   Li     2.418965   -4.190333   -0.000000
| 21>   F      3.755960   -3.151841   -0.000000
| 22>   Li     4.546353   -1.654742   -0.000000
| 23> *
| 24> 
| 25>                          ****END OF INPUT****
================================================================================

                       *****************************
                       * Geometry Optimization Run *
                       *****************************

Geometry optimization settings:
Update method            Update   .... BFGS
Choice of coordinates    CoordSys .... Z-matrix Internals
Initial Hessian          InHess   .... Almoef's Model

Convergence Tolerances:
Energy Change            TolE     ....  5.0000e-06 Eh
Max. Gradient            TolMAXG  ....  3.0000e-04 Eh/bohr
RMS Gradient             TolRMSG  ....  1.0000e-04 Eh/bohr
Max. Displacement        TolMAXD  ....  4.0000e-03 bohr
RMS Displacement         TolRMSD  ....  2.0000e-03 bohr
Strict Convergence                ....  False
------------------------------------------------------------------------------
                        ORCA OPTIMIZATION COORDINATE SETUP
------------------------------------------------------------------------------

The optimization will be done in new redundant internal coordinates
Making redundant internal coordinates   ...  (new redundants) done
Evaluating the initial hessian          ...  (Almloef) done
Evaluating the coordinates              ...  done
Calculating the B-matrix                .... done
Calculating the G-matrix                .... done
Diagonalizing the G-matrix              .... done
Small eigenvalue found = 9.578e-03
Small eigenvalue found = 9.580e-03
The first mode is                       ....    6
The number of degrees of freedom        ....   48

    -----------------------------------------------------------------
                    Redundant Internal Coordinates


    -----------------------------------------------------------------
         Definition                    Initial Value    Approx d2E/dq
    -----------------------------------------------------------------
      1. B(Li  1,F   0)                  1.6929         0.829428   
      2. B(F   2,Li  1)                  1.6929         0.829262   
      3. B(Li  3,F   2)                  1.6929         0.829267   
      4. B(F   4,Li  3)                  1.6929         0.829428   
      5. B(Li  5,F   4)                  1.6929         0.829427   
      6. B(F   6,Li  5)                  1.6929         0.829372   
      7. B(Li  7,F   6)                  1.6929         0.829369   
      8. B(F   8,Li  7)                  1.6929         0.829301   
      9. B(Li  9,F   8)                  1.6929         0.829301   
     10. B(F  10,Li  9)                  1.6929         0.829301   
     11. B(Li 11,F  10)                  1.6929         0.829301   
     12. B(F  12,Li 11)                  1.6929         0.829369   
     13. B(Li 13,F  12)                  1.6929         0.829372   
     14. B(F  14,Li 13)                  1.6929         0.829427   
     15. B(Li 15,F  14)                  1.6929         0.829428   
     16. B(F  16,Li 15)                  1.6929         0.829267   
     17. B(Li 17,F  16)                  1.6929         0.829262   
     18. B(Li 17,F   0)                  1.6929         0.829428   
     19. A(Li  1,F   0,Li 17)          155.6302         0.562773   
     20. A(F   0,Li  1,F   2)          164.3531         0.562751   
     21. A(Li  1,F   2,Li  3)          155.6696         0.562730   
     22. A(F   2,Li  3,F   4)          164.3528         0.562752   
     23. A(Li  3,F   4,Li  5)          155.6312         0.562773   
     24. A(F   4,Li  5,F   6)          164.3498         0.562765   
     25. A(Li  5,F   6,Li  7)          155.6437         0.562758   
     26. A(F   6,Li  7,F   8)          164.3512         0.562749   
     27. A(Li  7,F   8,Li  9)          155.6561         0.562740   
     28. A(F   8,Li  9,F  10)          164.3550         0.562740   
     29. A(Li  9,F  10,Li 11)          155.6561         0.562740   
     30. A(F  10,Li 11,F  12)          164.3512         0.562749   
     31. A(Li 11,F  12,Li 13)          155.6437         0.562758   
     32. A(F  12,Li 13,F  14)          164.3498         0.562765   
     33. A(Li 13,F  14,Li 15)          155.6312         0.562773   
     34. A(F  14,Li 15,F  16)          164.3528         0.562752   
     35. A(Li 15,F  16,Li 17)          155.6696         0.562730   
     36. A(F   0,Li 17,F  16)          164.3531         0.562751   
     37. D(F   2,Li  1,F   0,Li 17)      0.0000         0.007276   
     38. D(Li  3,F   2,Li  1,F   0)      0.0000         0.007274   
     39. D(F   4,Li  3,F   2,Li  1)      0.0000         0.007274   
     40. D(Li  5,F   4,Li  3,F   2)      0.0000         0.007276   
     41. D(F   6,Li  5,F   4,Li  3)      0.0000         0.007276   
     42. D(Li  7,F   6,Li  5,F   4)      0.0000         0.007275   
     43. D(F   8,Li  7,F   6,Li  5)      0.0000         0.007275   
     44. D(Li  9,F   8,Li  7,F   6)      0.0000         0.007274   
     45. D(F  10,Li  9,F   8,Li  7)      0.0000         0.007274   
     46. D(Li 11,F  10,Li  9,F   8)      0.0000         0.007274   
     47. D(F  12,Li 11,F  10,Li  9)      0.0000         0.007274   
     48. D(Li 13,F  12,Li 11,F  10)      0.0000         0.007275   
     49. D(F  14,Li 13,F  12,Li 11)      0.0000         0.007275   
     50. D(Li 15,F  14,Li 13,F  12)      0.0000         0.007276   
     51. D(F  16,Li 15,F  14,Li 13)      0.0000         0.007276   
     52. D(Li 17,F  16,Li 15,F  14)      0.0000         0.007274   
     53. D(F   0,Li 17,F  16,Li 15)      0.0000         0.007274   
     54. D(F  16,Li 17,F   0,Li  1)      0.0000         0.007276   
    -----------------------------------------------------------------

Number of atoms                         .... 18
Number of degrees of freedom            .... 54

         *************************************************************
         *                GEOMETRY OPTIMIZATION CYCLE   1            *
         *************************************************************
---------------------------------
CARTESIAN COORDINATES (ANGSTROEM)
---------------------------------
  F      4.903665    0.000000   -0.000000
  Li     4.546353    1.654742    0.000000
  F      3.755960    3.151841    0.000000
  Li     2.418965    4.190333    0.000000
  F      0.851472    4.829714    0.000000
  Li    -0.840185    4.765370    0.000000
  F     -2.451786    4.247058   -0.000000
  Li    -3.706195    3.110235   -0.000000
  F     -4.607473    1.677168   -0.000000
  Li    -4.837888   -0.000000   -0.000000
  F     -4.607473   -1.677168    0.000000
  Li    -3.706195   -3.110235    0.000000
  F     -2.451786   -4.247058    0.000000
  Li    -0.840185   -4.765370    0.000000
  F      0.851472   -4.829714   -0.000000
  Li     2.418965   -4.190333   -0.000000
  F      3.755960   -3.151841   -0.000000
  Li     4.546353   -1.654742   -0.000000

----------------------------
CARTESIAN COORDINATES (A.U.)
----------------------------
  NO LB      ZA    FRAG     MASS         X           Y           Z
   0 F     9.0000    0    18.998    9.266584    0.000000   -0.000000
   1 Li    3.0000    0     6.941    8.591362    3.127009    0.000000
   2 F     9.0000    0    18.998    7.097736    5.956116    0.000000
   3 Li    3.0000    0     6.941    4.571181    7.918582    0.000000
   4 F     9.0000    0    18.998    1.609049    9.126837    0.000000
   5 Li    3.0000    0     6.941   -1.587720    9.005244    0.000000
   6 F     9.0000    0    18.998   -4.633204    8.025776   -0.000000
   7 Li    3.0000    0     6.941   -7.003694    5.877492   -0.000000
   8 F     9.0000    0    18.998   -8.706862    3.169388   -0.000000
   9 Li    3.0000    0     6.941   -9.142283   -0.000000   -0.000000
  10 F     9.0000    0    18.998   -8.706862   -3.169388    0.000000
  11 Li    3.0000    0     6.941   -7.003694   -5.877492    0.000000
  12 F     9.0000    0    18.998   -4.633204   -8.025776    0.000000
  13 Li    3.0000    0     6.941   -1.587720   -9.005244    0.000000
  14 F     9.0000    0    18.998    1.609049   -9.126837   -0.000000
  15 Li    3.0000    0     6.941    4.571181   -7.918582   -0.000000
  16 F     9.0000    0    18.998    7.097736   -5.956116   -0.000000
  17 Li    3.0000    0     6.941    8.591362   -3.127009   -0.000000

--------------------------------
INTERNAL COORDINATES (ANGSTROEM)
--------------------------------
 F      0   0   0     0.000000000000     0.00000000     0.00000000
 Li     1   0   0     1.692880076056     0.00000000     0.00000000
 F      2   1   0     1.692934289998   164.35311783     0.00000000
 Li     3   2   1     1.692932740569   155.66957094     0.00000000
 F      4   3   2     1.692879903658   164.35279663     0.00000000
 Li     5   4   3     1.692880254473   155.63117683     0.00000000
 F      6   5   4     1.692898435390   164.34978550     0.00000000
 Li     7   6   5     1.692899427789   155.64365569     0.00000000
 F      8   7   6     1.692921457060   164.35123788     0.00000000
 Li     9   8   7     1.692921608477   155.65609596     0.00000000
 F     10   9   8     1.692921608477   164.35496347     0.00000000
 Li    11  10   9     1.692921457060   155.65609596     0.00000000
 F     12  11  10     1.692899427789   164.35123788     0.00000000
 Li    13  12  11     1.692898435390   155.64365569     0.00000000
 F     14  13  12     1.692880254473   164.34978550     0.00000000
 Li    15  14  13     1.692879903658   155.63117683     0.00000000
 F     16  15  14     1.692932740569   164.35279663     0.00000000
 Li     1   2   3     1.692880076056   155.63016201     0.00000000

---------------------------
INTERNAL COORDINATES (A.U.)
---------------------------
 F      0   0   0     0.000000000000     0.00000000     0.00000000
 Li     1   0   0     3.199079721318     0.00000000     0.00000000
 F      2   1   0     3.199182170820   164.35311783     0.00000000
 Li     3   2   1     3.199179242823   155.66957094     0.00000000
 F      4   3   2     3.199079395533   164.35279663     0.00000000
 Li     5   4   3     3.199080058477   155.63117683     0.00000000
 F      6   5   4     3.199114415430   164.34978550     0.00000000
 Li     7   6   5     3.199116290794   155.64365569     0.00000000
 F      8   7   6     3.199157920082   164.35123788     0.00000000
 Li     9   8   7     3.199158206219   155.65609596     0.00000000
 F     10   9   8     3.199158206219   164.35496347     0.00000000
 Li    11  10   9     3.199157920082   155.65609596     0.00000000
 F     12  11  10     3.199116290794   164.35123788     0.00000000
 Li    13  12  11     3.199114415430   155.64365569     0.00000000
 F     14  13  12     3.199080058477   164.34978550     0.00000000
 Li    15  14  13     3.199079395533   155.63117683     0.00000000
 F     16  15  14     3.199179242823   164.35279663     0.00000000
 Li     1   2   3     3.199079721318   155.63016201     0.00000000

---------------------
BASIS SET INFORMATION
---------------------
There are 2 groups of distinct atoms

 Group   1 Type F   : 12s7p2d1f contracted to 6s4p2d1f pattern {621111/4111/11/1}
 Group   2 Type Li  : 12s4p1d contracted to 6s4p1d pattern {621111/1111/1}

Atom   0F    basis set group =>   1
Atom   1Li   basis set group =>   2
Atom   2F    basis set group =>   1
Atom   3Li   basis set group =>   2
Atom   4F    basis set group =>   1
Atom   5Li   basis set group =>   2
Atom   6F    basis set group =>   1
Atom   7Li   basis set group =>   2
Atom   8F    basis set group =>   1
Atom   9Li   basis set group =>   2
Atom  10F    basis set group =>   1
Atom  11Li   basis set group =>   2
Atom  12F    basis set group =>   1
Atom  13Li   basis set group =>   2
Atom  14F    basis set group =>   1
Atom  15Li   basis set group =>   2
Atom  16F    basis set group =>   1
Atom  17Li   basis set group =>   2
------------------------------------------------------------------------------
                           ORCA GTO INTEGRAL CALCULATION
------------------------------------------------------------------------------

                         BASIS SET STATISTICS AND STARTUP INFO

 # of primitive gaussian shells          ...  351
 # of primitive gaussian functions       ...  711
 # of contracted shells                  ...  216
 # of contracted basis functions         ...  522
 Highest angular momentum                ...    3
 Maximum contraction depth               ...    6
 Integral package used                   ... LIBINT
 Integral threshhold            Thresh   ...  1.000e-12
 Primitive cut-off              TCut     ...  1.000e-14


------------------------------ INTEGRAL EVALUATION ----------------------------


 * One electron integrals 
 Pre-screening matrix                    ... done
 Shell pair data                         ... done (   0.010 sec)

Timings:
 Total evaluation time               ...     0.013 sec (   0.000 min)
 One electron matrix time            ...     0.121 sec (   0.002 min) =930.8%
 Schwartz matrix evaluation time     ...     0.427 sec (   0.007 min) =3284.6%

-------------------------------------------------------------------------------
                                 ORCA SCF
-------------------------------------------------------------------------------

------------
SCF SETTINGS
------------
Hamiltonian:
 Ab initio Hamiltonian  Method          .... Hartree-Fock(GTOs)


General Settings:
 Integral files         IntName         .... Li9F9-RHF-madef2TZVPP-OPT-FREQ
 Hartree-Fock type      HFTyp           .... RHF
 Total Charge           Charge          ....    0
 Multiplicity           Mult            ....    1
 Number of Electrons    NEL             ....  108
 Basis Dimension        Dim             ....  522
 Nuclear Repulsion      ENuc            ....    571.4837883582 Eh

Convergence Acceleration:
 DIIS                   CNVDIIS         .... on
   Start iteration      DIISMaxIt       ....    12
   Startup error        DIISStart       ....  0.200000
   # of expansion vecs  DIISMaxEq       ....     5
   Bias factor          DIISBfac        ....   1.050
   Max. coefficient     DIISMaxC        ....  10.000
 Newton-Raphson         CNVNR           .... off
 SOSCF                  CNVSOSCF        .... on
   Start iteration      SOSCFMaxIt      ....   150
   Startup grad/error   SOSCFStart      ....  0.003300
 Level Shifting         CNVShift        .... on
   Level shift para.    LevelShift      ....    0.2500
   Turn off err/grad.   ShiftErr        ....    0.0010
 Zerner damping         CNVZerner       .... off
 Static damping         CNVDamp         .... on
   Fraction old density DampFac         ....    0.7000
   Max. Damping (<1)    DampMax         ....    0.9800
   Min. Damping (>=0)   DampMin         ....    0.0000
   Turn off err/grad.   DampErr         ....    0.1000
 Fernandez-Rico         CNVRico         .... off

SCF Procedure:
 Maximum # iterations   MaxIter         ....   125
 SCF integral mode      SCFMode         .... Direct
   Integral package                     .... LIBINT
 Reset frequency        DirectResetFreq ....    20
 Integral Threshold     Thresh          ....  1.000e-12 Eh
 Primitive CutOff       TCut            ....  1.000e-14 Eh

Convergence Tolerance:
 Convergence Check Mode ConvCheckMode   .... Total+1el-Energy
 Convergence forced     ConvForced      .... 0
 Energy Change          TolE            ....  1.000e-09 Eh
 1-El. energy change                    ....  1.000e-06 Eh
 Orbital Gradient       TolG            ....  2.000e-06
 Orbital Rotation angle TolX            ....  2.000e-06
 DIIS Error             TolErr          ....  1.000e-08


Diagonalization of the overlap matrix:
Smallest eigenvalue                        ... 6.451e-05
Time for diagonalization                   ...    0.056 sec
Threshold for overlap eigenvalues          ... 1.000e-08
Number of eigenvalues below threshold      ... 0
Time for construction of square roots      ...    0.033 sec
Total time needed                          ...    0.090 sec

-------------------
DFT GRID GENERATION
-------------------

General Integration Accuracy     IntAcc      ...  4.340
Radial Grid Type                 RadialGrid  ... Gauss-Chebyshev
Angular Grid (max. acc.)         AngularGrid ... Lebedev-110
Angular grid pruning method      GridPruning ... 3 (G Style)
Weight generation scheme         WeightScheme... Becke
Basis function cutoff            BFCut       ...    1.0000e-12
Integration weight cutoff        WCut        ...    1.0000e-14
Grids for H and He will be reduced by one unit

# of grid points (after initial pruning)     ...  30420 (   0.0 sec)
# of grid points (after weights+screening)   ...  28620 (   0.1 sec)
nearest neighbour list constructed           ...    0.0 sec
Grid point re-assignment to atoms done       ...    0.0 sec
Grid point division into batches done        ...    0.1 sec
Reduced shell lists constructed in    1.1 sec

Total number of grid points                  ...    28620
Total number of batches                      ...      452
Average number of points per batch           ...       63
Average number of grid points per atom       ...     1590
Average number of shells per batch           ...    88.04 (40.76%)
Average number of basis functions per batch  ...   193.73 (37.11%)
Average number of large shells per batch     ...    63.70 (72.35%)
Average number of large basis fcns per batch ...   135.44 (69.91%)
Maximum spatial batch extension              ...  41.11, 33.88, 63.59 au
Average spatial batch extension              ...   5.59,  5.54,  7.99 au

Time for grid setup =    1.255 sec

------------------------------
INITIAL GUESS: MODEL POTENTIAL
------------------------------
Loading Hartree-Fock densities                     ... done
Calculating cut-offs                               ... done
Setting up the integral package                    ... done
Initializing the effective Hamiltonian             ... done
Starting the Coulomb interaction                   ... done (   1.0 sec)
Reading the grid                                   ... done
Mapping shells                                     ... done
Starting the XC term evaluation                    ... done (   0.8 sec)
Transforming the Hamiltonian                       ... done (   0.0 sec)
Diagonalizing the Hamiltonian                      ... done (   0.1 sec)
Back transforming the eigenvectors                 ... done (   0.0 sec)
Now organizing SCF variables                       ... done
                      ------------------
                      INITIAL GUESS DONE (   3.4 sec)
                      ------------------
--------------
SCF ITERATIONS
--------------
ITER       Energy         Delta-E        Max-DP      RMS-DP      [F,P]     Damp
               ***  Starting incremental Fock matrix formation  ***
  0   -962.8710646746   0.000000000000 0.03875741  0.00065990  0.3288889 0.7000
  1   -963.1287788987  -0.257714224045 0.02524305  0.00048010  0.2485267 0.7000
                               ***Turning on DIIS***
  2   -963.2645735391  -0.135794640456 0.02163428  0.00031633  0.1856339 0.7000
  3   -964.7635433502  -1.498969811104 0.01989332  0.00023013  0.1365235 0.7000
  4   -964.4087341503   0.354809199903 0.04740791  0.00056070  0.0961928 0.0000
  5   -963.6000241476   0.808710002678 0.00319983  0.00004361  0.0064472 0.0000
                      *** Initiating the SOSCF procedure ***
                           *** Shutting down DIIS ***
                      *** Re-Reading the Fockian *** 
                      *** Removing any level shift *** 
ITER      Energy       Delta-E        Grad      Rot      Max-DP    RMS-DP
  6   -963.51964183   0.0803823170  0.000411  0.000411  0.000826  0.000014
               *** Restarting incremental Fock matrix formation ***
  7   -963.53346791  -0.0138260772  0.000147  0.000170  0.000338  0.000007
  8   -963.53347016  -0.0000022560  0.000061  0.000119  0.000212  0.000004
  9   -963.53347060  -0.0000004403  0.000013  0.000020  0.000023  0.000000
 10   -963.53347061  -0.0000000080  0.000008  0.000003  0.000006  0.000000
 11   -963.53347061  -0.0000000025  0.000001  0.000001  0.000004  0.000000
                  ***Gradient check signals convergence***
              ***Rediagonalizing the Fockian in SOSCF/NRSCF***

               *****************************************************
               *                     SUCCESS                       *
               *           SCF CONVERGED AFTER  12 CYCLES          *
               *****************************************************


----------------
TOTAL SCF ENERGY
----------------

Total Energy       :         -963.53347061 Eh          -26219.07869 eV

Components:
Nuclear Repulsion  :          571.48378836 Eh           15550.86447 eV
Electronic Energy  :        -1535.01725897 Eh          -41769.94316 eV
One Electron Energy:        -2499.69511506 Eh          -68020.16216 eV
Two Electron Energy:          964.67785609 Eh           26250.21900 eV

Virial components:
Potential Energy   :        -1926.73969553 Eh          -52429.25257 eV
Kinetic Energy     :          963.20622492 Eh           26210.17388 eV
Virial Ratio       :            2.00033975


---------------
SCF CONVERGENCE
---------------

  Last Energy change         ...    3.4333e-11  Tolerance :   1.0000e-09
  Last MAX-Density change    ...    7.4499e-07  Tolerance :   1.0000e-08
  Last RMS-Density change    ...    8.8960e-09  Tolerance :   1.0000e-09
  Last Orbital Gradient      ...    1.0459e-07  Tolerance :   2.0000e-06
  Last Orbital Rotation      ...    1.9308e-07  Tolerance :   2.0000e-06

             **** THE GBW FILE WAS UPDATED (Li9F9-RHF-madef2TZVPP-OPT-FREQ.gbw) ****
             **** DENSITY FILE WAS UPDATED (Li9F9-RHF-madef2TZVPP-OPT-FREQ.scfp) ****
             **** ENERGY FILE WAS UPDATED (Li9F9-RHF-madef2TZVPP-OPT-FREQ.en.tmp) ****
             **** THE GBW FILE WAS UPDATED (Li9F9-RHF-madef2TZVPP-OPT-FREQ.gbw) ****
             **** DENSITY FILE WAS UPDATED (Li9F9-RHF-madef2TZVPP-OPT-FREQ.scfp) ****
----------------
ORBITAL ENERGIES
----------------

  NO   OCC          E(Eh)            E(eV) 
   0   2.0000     -26.179325      -712.3756 
   1   2.0000     -26.179324      -712.3756 
   2   2.0000     -26.179324      -712.3756 
   3   2.0000     -26.179323      -712.3756 
   4   2.0000     -26.179323      -712.3756 
   5   2.0000     -26.179322      -712.3756 
   6   2.0000     -26.179321      -712.3755 
   7   2.0000     -26.179321      -712.3755 
   8   2.0000     -26.179320      -712.3755 
   9   2.0000      -2.372279       -64.5530 
  10   2.0000      -2.372215       -64.5513 
  11   2.0000      -2.372214       -64.5512 
  12   2.0000      -2.372049       -64.5467 
  13   2.0000      -2.372049       -64.5467 
  14   2.0000      -2.371861       -64.5416 
  15   2.0000      -2.371860       -64.5416 
  16   2.0000      -2.371738       -64.5383 
  17   2.0000      -2.371738       -64.5383 
  18   2.0000      -1.455609       -39.6091 
  19   2.0000      -1.455608       -39.6091 
  20   2.0000      -1.454111       -39.5684 
  21   2.0000      -1.454109       -39.5683 
  22   2.0000      -1.451790       -39.5052 
  23   2.0000      -1.451786       -39.5051 
  24   2.0000      -1.449725       -39.4490 
  25   2.0000      -1.449723       -39.4490 
  26   2.0000      -1.448903       -39.4267 
  27   2.0000      -0.595593       -16.2069 
  28   2.0000      -0.592701       -16.1282 
  29   2.0000      -0.592700       -16.1282 
  30   2.0000      -0.585348       -15.9281 
  31   2.0000      -0.585345       -15.9281 
  32   2.0000      -0.576949       -15.6996 
  33   2.0000      -0.576948       -15.6995 
  34   2.0000      -0.571473       -15.5506 
  35   2.0000      -0.571473       -15.5506 
  36   2.0000      -0.554632       -15.0923 
  37   2.0000      -0.553545       -15.0627 
  38   2.0000      -0.553542       -15.0626 
  39   2.0000      -0.552617       -15.0375 
  40   2.0000      -0.551708       -15.0127 
  41   2.0000      -0.551706       -15.0127 
  42   2.0000      -0.550799       -14.9880 
  43   2.0000      -0.550795       -14.9879 
  44   2.0000      -0.549384       -14.9495 
  45   2.0000      -0.549381       -14.9494 
  46   2.0000      -0.547667       -14.9028 
  47   2.0000      -0.547665       -14.9027 
  48   2.0000      -0.546697       -14.8764 
  49   2.0000      -0.546695       -14.8763 
  50   2.0000      -0.545618       -14.8470 
  51   2.0000      -0.545617       -14.8470 
  52   2.0000      -0.544917       -14.8279 
  53   2.0000      -0.544916       -14.8279 
  54   0.0000       0.011653         0.3171 
  55   0.0000       0.017939         0.4881 
  56   0.0000       0.017939         0.4881 
  57   0.0000       0.024790         0.6746 
  58   0.0000       0.024792         0.6746 
  59   0.0000       0.032992         0.8978 
  60   0.0000       0.032994         0.8978 
  61   0.0000       0.042457         1.1553 
  62   0.0000       0.042457         1.1553 
  63   0.0000       0.067597         1.8394 
  64   0.0000       0.070666         1.9229 
  65   0.0000       0.070670         1.9230 
  66   0.0000       0.085606         2.3295 
  67   0.0000       0.085610         2.3296 
  68   0.0000       0.099086         2.6963 
  69   0.0000       0.099089         2.6964 
  70   0.0000       0.099794         2.7155 
  71   0.0000       0.107056         2.9131 
  72   0.0000       0.111923         3.0456 
  73   0.0000       0.111924         3.0456 
  74   0.0000       0.119563         3.2535 
  75   0.0000       0.119564         3.2535 
  76   0.0000       0.126602         3.4450 
  77   0.0000       0.126609         3.4452 
  78   0.0000       0.144027         3.9192 
  79   0.0000       0.144028         3.9192 
  80   0.0000       0.165946         4.5156 
  81   0.0000       0.165954         4.5158 
  82   0.0000       0.168554         4.5866 
  83   0.0000       0.168554         4.5866 
  84   0.0000       0.172021         4.6809 
  85   0.0000       0.172022         4.6810 
  86   0.0000       0.187739         5.1086 
  87   0.0000       0.187740         5.1087 
  88   0.0000       0.190500         5.1838 
  89   0.0000       0.190501         5.1838 
  90   0.0000       0.224675         6.1137 
  91   0.0000       0.224687         6.1140 
  92   0.0000       0.228859         6.2276 
  93   0.0000       0.228865         6.2277 
  94   0.0000       0.240782         6.5520 
  95   0.0000       0.240786         6.5521 
  96   0.0000       0.248427         6.7600 
  97   0.0000       0.248428         6.7601 
  98   0.0000       0.258556         7.0357 
  99   0.0000       0.258557         7.0357 
 100   0.0000       0.265049         7.2123 
 101   0.0000       0.273209         7.4344 
 102   0.0000       0.273217         7.4346 
 103   0.0000       0.275486         7.4963 
 104   0.0000       0.275486         7.4963 
 105   0.0000       0.292304         7.9540 
 106   0.0000       0.292304         7.9540 
 107   0.0000       0.305312         8.3079 
 108   0.0000       0.305314         8.3080 
 109   0.0000       0.308516         8.3951 
 110   0.0000       0.315495         8.5851 
 111   0.0000       0.315497         8.5851 
 112   0.0000       0.325857         8.8670 
 113   0.0000       0.341882         9.3031 
 114   0.0000       0.360457         9.8085 
 115   0.0000       0.360481         9.8092 
 116   0.0000       0.360552         9.8111 
 117   0.0000       0.360582         9.8119 
 118   0.0000       0.371983        10.1222 
 119   0.0000       0.372000        10.1226 
 120   0.0000       0.382727        10.4145 
 121   0.0000       0.382728        10.4146 
 122   0.0000       0.386004        10.5037 
 123   0.0000       0.409371        11.1395 
 124   0.0000       0.409392        11.1401 
 125   0.0000       0.413620        11.2552 
 126   0.0000       0.413663        11.2564 
 127   0.0000       0.416121        11.3232 
 128   0.0000       0.416127        11.3234 
 129   0.0000       0.416930        11.3452 
 130   0.0000       0.423911        11.5352 
 131   0.0000       0.423915        11.5353 
 132   0.0000       0.432597        11.7716 
 133   0.0000       0.442669        12.0456 
 134   0.0000       0.442690        12.0462 
 135   0.0000       0.455537        12.3958 
 136   0.0000       0.455538        12.3958 
 137   0.0000       0.459575        12.5057 
 138   0.0000       0.459596        12.5063 
 139   0.0000       0.462553        12.5867 
 140   0.0000       0.462571        12.5872 
 141   0.0000       0.463039        12.5999 
 142   0.0000       0.463063        12.6006 
 143   0.0000       0.479240        13.0408 
 144   0.0000       0.479256        13.0412 
 145   0.0000       0.484914        13.1952 
 146   0.0000       0.484929        13.1956 
 147   0.0000       0.491210        13.3665 
 148   0.0000       0.491241        13.3673 
 149   0.0000       0.507751        13.8166 
 150   0.0000       0.507752        13.8166 
 151   0.0000       0.520294        14.1579 
 152   0.0000       0.520295        14.1579 
 153   0.0000       0.530834        14.4447 
 154   0.0000       0.530841        14.4449 
 155   0.0000       0.538019        14.6402 
 156   0.0000       0.538038        14.6408 
 157   0.0000       0.574735        15.6393 
 158   0.0000       0.581587        15.8258 
 159   0.0000       0.581593        15.8260 
 160   0.0000       0.618492        16.8300 
 161   0.0000       0.618494        16.8301 
 162   0.0000       0.623905        16.9773 
 163   0.0000       0.623909        16.9774 
 164   0.0000       0.636209        17.3121 
 165   0.0000       0.636211        17.3122 
 166   0.0000       0.645829        17.5739 
 167   0.0000       0.652557        17.7570 
 168   0.0000       0.652564        17.7572 
 169   0.0000       0.659324        17.9411 
 170   0.0000       0.659333        17.9414 
 171   0.0000       0.659353        17.9419 
 172   0.0000       0.659363        17.9422 
 173   0.0000       0.687129        18.6977 
 174   0.0000       0.687131        18.6978 
 175   0.0000       0.695250        18.9187 
 176   0.0000       0.695252        18.9188 
 177   0.0000       0.725091        19.7307 
 178   0.0000       0.734562        19.9884 
 179   0.0000       0.734563        19.9885 
 180   0.0000       0.739584        20.1251 
 181   0.0000       0.739591        20.1253 
 182   0.0000       0.748368        20.3641 
 183   0.0000       0.748368        20.3641 
 184   0.0000       0.748931        20.3794 
 185   0.0000       0.748942        20.3797 
 186   0.0000       0.763437        20.7742 
 187   0.0000       0.763445        20.7744 
 188   0.0000       0.775222        21.0949 
 189   0.0000       0.775231        21.0951 
 190   0.0000       0.792319        21.5601 
 191   0.0000       0.792344        21.5608 
 192   0.0000       0.802641        21.8410 
 193   0.0000       0.802660        21.8415 
 194   0.0000       0.807915        21.9845 
 195   0.0000       0.851222        23.1629 
 196   0.0000       0.886574        24.1249 
 197   0.0000       0.886592        24.1254 
 198   0.0000       0.912976        24.8433 
 199   0.0000       0.912977        24.8434 
 200   0.0000       0.926207        25.2034 
 201   0.0000       0.929633        25.2966 
 202   0.0000       0.929654        25.2972 
 203   0.0000       0.962187        26.1824 
 204   0.0000       0.962225        26.1835 
 205   0.0000       0.976408        26.5694 
 206   0.0000       0.976415        26.5696 
 207   0.0000       0.990026        26.9400 
 208   0.0000       0.990026        26.9400 
 209   0.0000       1.025341        27.9009 
 210   0.0000       1.025360        27.9015 
 211   0.0000       1.026305        27.9272 
 212   0.0000       1.026324        27.9277 
 213   0.0000       1.034794        28.1582 
 214   0.0000       1.034830        28.1592 
 215   0.0000       1.087902        29.6033 
 216   0.0000       1.166756        31.7490 
 217   0.0000       1.166763        31.7492 
 218   0.0000       1.182274        32.1713 
 219   0.0000       1.182278        32.1714 
 220   0.0000       1.190287        32.3893 
 221   0.0000       1.206894        32.8413 
 222   0.0000       1.226200        33.3666 
 223   0.0000       1.226209        33.3669 
 224   0.0000       1.249530        34.0014 
 225   0.0000       1.249546        34.0019 
 226   0.0000       1.286280        35.0015 
 227   0.0000       1.286282        35.0015 
 228   0.0000       1.317295        35.8454 
 229   0.0000       1.317334        35.8465 
 230   0.0000       1.358280        36.9607 
 231   0.0000       1.358280        36.9607 
 232   0.0000       1.364518        37.1304 
 233   0.0000       1.364520        37.1305 
 234   0.0000       1.474686        40.1282 
 235   0.0000       1.474746        40.1299 
 236   0.0000       1.478714        40.2379 
 237   0.0000       1.478724        40.2381 
 238   0.0000       1.519210        41.3398 
 239   0.0000       1.519210        41.3398 
 240   0.0000       1.548382        42.1336 
 241   0.0000       1.548427        42.1349 
 242   0.0000       1.652686        44.9719 
 243   0.0000       1.652752        44.9737 
 244   0.0000       1.670883        45.4670 
 245   0.0000       1.670904        45.4676 
 246   0.0000       1.673597        45.5409 
 247   0.0000       1.674125        45.5553 
 248   0.0000       1.674159        45.5562 
 249   0.0000       1.676311        45.6147 
 250   0.0000       1.709657        46.5221 
 251   0.0000       1.709666        46.5224 
 252   0.0000       1.916079        52.1392 
 253   0.0000       1.992900        54.2296 
 254   0.0000       1.992942        54.2307 
 255   0.0000       2.056851        55.9698 
 256   0.0000       2.056858        55.9700 
 257   0.0000       2.066266        56.2260 
 258   0.0000       2.066306        56.2270 
 259   0.0000       2.107717        57.3539 
 260   0.0000       2.107717        57.3539 
 261   0.0000       2.348741        63.9125 
 262   0.0000       2.348742        63.9125 
 263   0.0000       2.357203        64.1428 
 264   0.0000       2.357204        64.1428 
 265   0.0000       2.359094        64.1942 
 266   0.0000       2.359095        64.1942 
 267   0.0000       2.374177        64.6047 
 268   0.0000       2.374181        64.6047 
 269   0.0000       2.378175        64.7134 
 270   0.0000       2.378185        64.7137 
 271   0.0000       2.383075        64.8468 
 272   0.0000       2.383077        64.8468 
 273   0.0000       2.385429        64.9108 
 274   0.0000       2.393825        65.1393 
 275   0.0000       2.393826        65.1393 
 276   0.0000       2.395371        65.1814 
 277   0.0000       2.395387        65.1818 
 278   0.0000       2.403667        65.4071 
 279   0.0000       2.403678        65.4074 
 280   0.0000       2.405750        65.4638 
 281   0.0000       2.477163        67.4070 
 282   0.0000       2.477166        67.4071 
 283   0.0000       2.519446        68.5576 
 284   0.0000       2.522221        68.6331 
 285   0.0000       2.522234        68.6335 
 286   0.0000       2.524608        68.6981 
 287   0.0000       2.524608        68.6981 
 288   0.0000       2.592752        70.5524 
 289   0.0000       2.592755        70.5525 
 290   0.0000       2.608969        70.9937 
 291   0.0000       2.609032        70.9954 
 292   0.0000       2.651808        72.1594 
 293   0.0000       2.651923        72.1625 
 294   0.0000       2.699813        73.4656 
 295   0.0000       2.699882        73.4675 
 296   0.0000       2.701919        73.5230 
 297   0.0000       2.724983        74.1506 
 298   0.0000       2.733460        74.3812 
 299   0.0000       2.733472        74.3816 
 300   0.0000       2.799010        76.1649 
 301   0.0000       2.799042        76.1658 
 302   0.0000       2.867682        78.0336 
 303   0.0000       2.867693        78.0339 
 304   0.0000       2.913154        79.2710 
 305   0.0000       2.914622        79.3109 
 306   0.0000       2.914629        79.3111 
 307   0.0000       2.921247        79.4912 
 308   0.0000       2.921259        79.4915 
 309   0.0000       2.942816        80.0781 
 310   0.0000       2.942835        80.0786 
 311   0.0000       2.965858        80.7051 
 312   0.0000       2.965865        80.7053 
 313   0.0000       2.977937        81.0338 
 314   0.0000       2.977937        81.0338 
 315   0.0000       3.063997        83.3756 
 316   0.0000       3.064001        83.3757 
 317   0.0000       3.083354        83.9023 
 318   0.0000       3.083366        83.9027 
 319   0.0000       3.084750        83.9403 
 320   0.0000       3.094026        84.1927 
 321   0.0000       3.094059        84.1936 
 322   0.0000       3.096801        84.2682 
 323   0.0000       3.096866        84.2700 
 324   0.0000       3.617289        98.4314 
 325   0.0000       3.617290        98.4315 
 326   0.0000       3.662309        99.6565 
 327   0.0000       3.662321        99.6568 
 328   0.0000       3.670983        99.8925 
 329   0.0000       3.670988        99.8927 
 330   0.0000       3.677276       100.0638 
 331   0.0000       3.677283       100.0640 
 332   0.0000       3.678127       100.0869 
 333   0.0000       3.957211       107.6812 
 334   0.0000       3.957213       107.6813 
 335   0.0000       3.989455       108.5586 
 336   0.0000       3.989467       108.5589 
 337   0.0000       4.007353       109.0456 
 338   0.0000       4.007359       109.0458 
 339   0.0000       4.015146       109.2577 
 340   0.0000       4.016082       109.2832 
 341   0.0000       4.016096       109.2835 
 342   0.0000       4.018031       109.3362 
 343   0.0000       4.031500       109.7027 
 344   0.0000       4.031537       109.7037 
 345   0.0000       4.054213       110.3207 
 346   0.0000       4.054214       110.3208 
 347   0.0000       4.080592       111.0386 
 348   0.0000       4.080599       111.0387 
 349   0.0000       4.097625       111.5021 
 350   0.0000       4.097629       111.5022 
 351   0.0000       4.114641       111.9651 
 352   0.0000       4.114642       111.9651 
 353   0.0000       4.126895       112.2985 
 354   0.0000       4.126925       112.2993 
 355   0.0000       4.198837       114.2562 
 356   0.0000       4.206133       114.4547 
 357   0.0000       4.206150       114.4552 
 358   0.0000       4.478674       121.8709 
 359   0.0000       4.478681       121.8711 
 360   0.0000       4.752287       129.3163 
 361   0.0000       4.752293       129.3165 
 362   0.0000       4.866326       132.4195 
 363   0.0000       4.866353       132.4202 
 364   0.0000       4.892370       133.1282 
 365   0.0000       4.892432       133.1298 
 366   0.0000       4.901480       133.3760 
 367   0.0000       4.901511       133.3769 
 368   0.0000       4.906979       133.5257 
 369   0.0000       7.470794       203.2906 
 370   0.0000       7.470806       203.2910 
 371   0.0000       7.471200       203.3017 
 372   0.0000       7.471203       203.3018 
 373   0.0000       7.471233       203.3026 
 374   0.0000       7.471235       203.3026 
 375   0.0000       7.472210       203.3292 
 376   0.0000       7.472214       203.3293 
 377   0.0000       7.473228       203.3569 
 378   0.0000       7.473232       203.3570 
 379   0.0000       7.473675       203.3690 
 380   0.0000       7.473676       203.3691 
 381   0.0000       7.476309       203.4407 
 382   0.0000       7.476310       203.4407 
 383   0.0000       7.477313       203.4680 
 384   0.0000       7.477314       203.4681 
 385   0.0000       7.481463       203.5810 
 386   0.0000       7.481464       203.5810 
 387   0.0000       7.481624       203.5853 
 388   0.0000       7.481625       203.5854 
 389   0.0000       7.484921       203.6751 
 390   0.0000       7.484924       203.6751 
 391   0.0000       7.484979       203.6766 
 392   0.0000       7.484980       203.6767 
 393   0.0000       7.484987       203.6769 
 394   0.0000       7.484988       203.6769 
 395   0.0000       7.485024       203.6779 
 396   0.0000       7.485028       203.6780 
 397   0.0000       7.485068       203.6790 
 398   0.0000       7.485070       203.6791 
 399   0.0000       7.485081       203.6794 
 400   0.0000       7.485156       203.6814 
 401   0.0000       7.485158       203.6815 
 402   0.0000       7.485194       203.6825 
 403   0.0000       7.485208       203.6829 
 404   0.0000       7.485212       203.6830 
 405   0.0000       7.485219       203.6832 
 406   0.0000       7.485221       203.6832 
 407   0.0000       7.486394       203.7151 
 408   0.0000       7.486398       203.7153 
 409   0.0000       7.491224       203.8466 
 410   0.0000       7.491230       203.8467 
 411   0.0000       7.495291       203.9572 
 412   0.0000       7.495293       203.9573 
 413   0.0000       7.496849       203.9996 
 414   0.0000       7.498110       204.0339 
 415   0.0000       7.498110       204.0339 
 416   0.0000       7.500407       204.0965 
 417   0.0000       7.500409       204.0965 
 418   0.0000       7.508860       204.3265 
 419   0.0000       7.508862       204.3265 
 420   0.0000       7.509089       204.3327 
 421   0.0000       7.510143       204.3614 
 422   0.0000       7.510147       204.3615 
 423   0.0000       7.519024       204.6030 
 424   0.0000       7.519024       204.6030 
 425   0.0000       7.563539       205.8144 
 426   0.0000       7.563566       205.8151 
 427   0.0000       7.630258       207.6299 
 428   0.0000       7.630332       207.6319 
 429   0.0000       7.705584       209.6796 
 430   0.0000       7.705629       209.6808 
 431   0.0000       7.747940       210.8322 
 432   0.0000       8.972129       244.1440 
 433   0.0000       8.972129       244.1440 
 434   0.0000       8.972414       244.1518 
 435   0.0000       8.972414       244.1518 
 436   0.0000       8.975044       244.2234 
 437   0.0000       8.975048       244.2235 
 438   0.0000       8.983596       244.4561 
 439   0.0000       8.983604       244.4563 
 440   0.0000       8.983827       244.4624 
 441   0.0000       8.983830       244.4624 
 442   0.0000       8.989258       244.6101 
 443   0.0000       8.989259       244.6102 
 444   0.0000       8.990953       244.6563 
 445   0.0000       8.993195       244.7173 
 446   0.0000       8.993204       244.7175 
 447   0.0000       8.996174       244.7983 
 448   0.0000       8.996180       244.7985 
 449   0.0000       8.997217       244.8267 
 450   0.0000       9.024082       245.5578 
 451   0.0000       9.024082       245.5578 
 452   0.0000       9.066399       246.7093 
 453   0.0000       9.066403       246.7094 
 454   0.0000       9.070212       246.8130 
 455   0.0000       9.070213       246.8130 
 456   0.0000       9.077408       247.0088 
 457   0.0000       9.077424       247.0093 
 458   0.0000       9.078269       247.0323 
 459   0.0000       9.082961       247.1599 
 460   0.0000       9.082962       247.1600 
 461   0.0000       9.085980       247.2421 
 462   0.0000       9.085988       247.2423 
 463   0.0000       9.111523       247.9372 
 464   0.0000       9.111890       247.9471 
 465   0.0000       9.111916       247.9478 
 466   0.0000       9.131075       248.4692 
 467   0.0000       9.131082       248.4694 
 468   0.0000       9.226137       251.0559 
 469   0.0000       9.241391       251.4710 
 470   0.0000       9.241449       251.4726 
 471   0.0000       9.330332       253.8912 
 472   0.0000       9.330416       253.8935 
 473   0.0000       9.427784       256.5430 
 474   0.0000       9.427820       256.5440 
 475   0.0000       9.474204       257.8062 
 476   0.0000       9.474204       257.8062 
 477   0.0000       9.672071       263.1904 
 478   0.0000       9.676627       263.3144 
 479   0.0000       9.676634       263.3146 
 480   0.0000       9.685797       263.5639 
 481   0.0000       9.685797       263.5639 
 482   0.0000       9.686638       263.5868 
 483   0.0000       9.686649       263.5871 
 484   0.0000       9.691560       263.7208 
 485   0.0000       9.691564       263.7209 
 486   0.0000       9.786149       266.2946 
 487   0.0000       9.786153       266.2948 
 488   0.0000       9.788141       266.3488 
 489   0.0000       9.797379       266.6002 
 490   0.0000       9.797412       266.6011 
 491   0.0000       9.807752       266.8825 
 492   0.0000       9.807760       266.8827 
 493   0.0000       9.810181       266.9486 
 494   0.0000       9.810232       266.9500 
 495   0.0000      10.070176       274.0234 
 496   0.0000      10.070180       274.0235 
 497   0.0000      10.121281       275.4141 
 498   0.0000      10.121312       275.4149 
 499   0.0000      10.189617       277.2736 
 500   0.0000      10.189690       277.2756 
 501   0.0000      10.250288       278.9245 
 502   0.0000      10.250338       278.9259 
 503   0.0000      10.280527       279.7474 
 504   0.0000      15.554479       423.2589 
 505   0.0000      15.599521       424.4846 
 506   0.0000      15.599605       424.4868 
 507   0.0000      15.639963       425.5850 
 508   0.0000      15.640083       425.5883 
 509   0.0000      15.663661       426.2299 
 510   0.0000      15.663690       426.2307 
 511   0.0000      15.756664       428.7606 
 512   0.0000      15.756675       428.7609 
 513   0.0000      58.975767      1604.8122 
 514   0.0000      58.975768      1604.8122 
 515   0.0000      59.102623      1608.2641 
 516   0.0000      59.102639      1608.2646 
 517   0.0000      59.164541      1609.9490 
 518   0.0000      59.164594      1609.9505 
 519   0.0000      59.191178      1610.6738 
 520   0.0000      59.191210      1610.6747 
 521   0.0000      59.206128      1611.0806 

                    ********************************
                    * MULLIKEN POPULATION ANALYSIS *
                    ********************************

-----------------------
MULLIKEN ATOMIC CHARGES
-----------------------
   0 F :   -0.983685
   1 Li:    0.983627
   2 F :   -0.983567
   3 Li:    0.983616
   4 F :   -0.983663
   5 Li:    0.983641
   6 F :   -0.983618
   7 Li:    0.983606
   8 F :   -0.983604
   9 Li:    0.983611
  10 F :   -0.983604
  11 Li:    0.983606
  12 F :   -0.983618
  13 Li:    0.983641
  14 F :   -0.983663
  15 Li:    0.983616
  16 F :   -0.983567
  17 Li:    0.983627
Sum of atomic charges:   -0.0000000

--------------------------------
MULLIKEN REDUCED ORBITAL CHARGES
--------------------------------
  0 F s       :     3.972614  s :     3.972614
      pz      :     1.956905  p :     6.010631
      px      :     1.961128
      py      :     2.092598
      dz2     :     0.000080  d :     0.000402
      dxz     :     0.000043
      dyz     :     0.000002
      dx2y2   :     0.000196
      dxy     :     0.000080
      f0      :     0.000004  f :     0.000038
      f+1     :     0.000001
      f-1     :     0.000007
      f+2     :     0.000006
      f-2     :    -0.000000
      f+3     :     0.000010
      f-3     :     0.000010
  1 Lis       :     1.856140  s :     1.856140
      pz      :     0.025483  p :     0.123632
      px      :     0.028621
      py      :     0.069529
      dz2     :    -0.000271  d :     0.036600
      dxz     :     0.002278
      dyz     :     0.015274
      dx2y2   :     0.008666
      dxy     :     0.010653
  2 F s       :     3.972616  s :     3.972616
      pz      :     1.956915  p :     6.010511
      px      :     2.015383
      py      :     2.038214
      dz2     :     0.000080  d :     0.000402
      dxz     :     0.000026
      dyz     :     0.000019
      dx2y2   :     0.000083
      dxy     :     0.000193
      f0      :     0.000004  f :     0.000038
      f+1     :     0.000003
      f-1     :     0.000005
      f+2     :     0.000000
      f-2     :     0.000006
      f+3     :     0.000010
      f-3     :     0.000010
  3 Lis       :     1.856152  s :     1.856152
      pz      :     0.025483  p :     0.123630
      px      :     0.062416
      py      :     0.035731
      dz2     :    -0.000271  d :     0.036602
      dxz     :     0.013015
      dyz     :     0.004537
      dx2y2   :     0.012535
      dxy     :     0.006785
  4 F s       :     3.972617  s :     3.972617
      pz      :     1.956905  p :     6.010606
      px      :     2.088606
      py      :     1.965095
      dz2     :     0.000080  d :     0.000402
      dxz     :     0.000004
      dyz     :     0.000042
      dx2y2   :     0.000183
      dxy     :     0.000094
      f0      :     0.000004  f :     0.000038
      f+1     :     0.000007
      f-1     :     0.000001
      f+2     :     0.000005
      f-2     :     0.000001
      f+3     :     0.000010
      f-3     :     0.000010
  5 Lis       :     1.856123  s :     1.856123
      pz      :     0.025484  p :     0.123637
      px      :     0.074172
      py      :     0.023981
      dz2     :    -0.000271  d :     0.036599
      dxz     :     0.016749
      dyz     :     0.000804
      dx2y2   :     0.005264
      dxy     :     0.014053
  6 F s       :     3.972617  s :     3.972617
      pz      :     1.956908  p :     6.010561
      px      :     2.059668
      py      :     1.993985
      dz2     :     0.000080  d :     0.000402
      dxz     :     0.000013
      dyz     :     0.000033
      dx2y2   :     0.000109
      dxy     :     0.000167
      f0      :     0.000004  f :     0.000038
      f+1     :     0.000006
      f-1     :     0.000002
      f+2     :     0.000001
      f-2     :     0.000004
      f+3     :     0.000010
      f-3     :     0.000010
  7 Lis       :     1.856162  s :     1.856162
      pz      :     0.025483  p :     0.123629
      px      :     0.044429
      py      :     0.053718
      dz2     :    -0.000270  d :     0.036602
      dxz     :     0.007300
      dyz     :     0.010252
      dx2y2   :     0.015052
      dxy     :     0.004269
  8 F s       :     3.972610  s :     3.972610
      pz      :     1.956911  p :     6.010554
      px      :     1.976473
      py      :     2.077170
      dz2     :     0.000080  d :     0.000402
      dxz     :     0.000039
      dyz     :     0.000007
      dx2y2   :     0.000148
      dxy     :     0.000128
      f0      :     0.000004  f :     0.000038
      f+1     :     0.000002
      f-1     :     0.000006
      f+2     :     0.000003
      f-2     :     0.000002
      f+3     :     0.000010
      f-3     :     0.000010
  9 Lis       :     1.856159  s :     1.856159
      pz      :     0.025482  p :     0.123630
      px      :     0.022375
      py      :     0.075773
      dz2     :    -0.000271  d :     0.036601
      dxz     :     0.000292
      dyz     :     0.017260
      dx2y2   :     0.003919
      dxy     :     0.015401
 10 F s       :     3.972610  s :     3.972610
      pz      :     1.956911  p :     6.010554
      px      :     1.976473
      py      :     2.077170
      dz2     :     0.000080  d :     0.000402
      dxz     :     0.000039
      dyz     :     0.000007
      dx2y2   :     0.000148
      dxy     :     0.000128
      f0      :     0.000004  f :     0.000038
      f+1     :     0.000002
      f-1     :     0.000006
      f+2     :     0.000003
      f-2     :     0.000002
      f+3     :     0.000010
      f-3     :     0.000010
 11 Lis       :     1.856162  s :     1.856162
      pz      :     0.025483  p :     0.123629
      px      :     0.044429
      py      :     0.053718
      dz2     :    -0.000270  d :     0.036602
      dxz     :     0.007300
      dyz     :     0.010252
      dx2y2   :     0.015052
      dxy     :     0.004269
 12 F s       :     3.972617  s :     3.972617
      pz      :     1.956908  p :     6.010561
      px      :     2.059668
      py      :     1.993985
      dz2     :     0.000080  d :     0.000402
      dxz     :     0.000013
      dyz     :     0.000033
      dx2y2   :     0.000109
      dxy     :     0.000167
      f0      :     0.000004  f :     0.000038
      f+1     :     0.000006
      f-1     :     0.000002
      f+2     :     0.000001
      f-2     :     0.000004
      f+3     :     0.000010
      f-3     :     0.000010
 13 Lis       :     1.856123  s :     1.856123
      pz      :     0.025484  p :     0.123637
      px      :     0.074172
      py      :     0.023981
      dz2     :    -0.000271  d :     0.036599
      dxz     :     0.016749
      dyz     :     0.000804
      dx2y2   :     0.005264
      dxy     :     0.014053
 14 F s       :     3.972617  s :     3.972617
      pz      :     1.956905  p :     6.010606
      px      :     2.088606
      py      :     1.965095
      dz2     :     0.000080  d :     0.000402
      dxz     :     0.000004
      dyz     :     0.000042
      dx2y2   :     0.000183
      dxy     :     0.000094
      f0      :     0.000004  f :     0.000038
      f+1     :     0.000007
      f-1     :     0.000001
      f+2     :     0.000005
      f-2     :     0.000001
      f+3     :     0.000010
      f-3     :     0.000010
 15 Lis       :     1.856152  s :     1.856152
      pz      :     0.025483  p :     0.123630
      px      :     0.062416
      py      :     0.035731
      dz2     :    -0.000271  d :     0.036602
      dxz     :     0.013015
      dyz     :     0.004537
      dx2y2   :     0.012535
      dxy     :     0.006785
 16 F s       :     3.972616  s :     3.972616
      pz      :     1.956915  p :     6.010511
      px      :     2.015383
      py      :     2.038214
      dz2     :     0.000080  d :     0.000402
      dxz     :     0.000026
      dyz     :     0.000019
      dx2y2   :     0.000083
      dxy     :     0.000193
      f0      :     0.000004  f :     0.000038
      f+1     :     0.000003
      f-1     :     0.000005
      f+2     :     0.000000
      f-2     :     0.000006
      f+3     :     0.000010
      f-3     :     0.000010
 17 Lis       :     1.856140  s :     1.856140
      pz      :     0.025483  p :     0.123632
      px      :     0.028621
      py      :     0.069529
      dz2     :    -0.000271  d :     0.036600
      dxz     :     0.002278
      dyz     :     0.015274
      dx2y2   :     0.008666
      dxy     :     0.010653


                     *******************************
                     * LOEWDIN POPULATION ANALYSIS *
                     *******************************

----------------------
LOEWDIN ATOMIC CHARGES
----------------------
   0 F :   -0.380615
   1 Li:    0.380633
   2 F :   -0.380649
   3 Li:    0.380632
   4 F :   -0.380615
   5 Li:    0.380621
   6 F :   -0.380627
   7 Li:    0.380635
   8 F :   -0.380642
   9 Li:    0.380642
  10 F :   -0.380642
  11 Li:    0.380635
  12 F :   -0.380627
  13 Li:    0.380621
  14 F :   -0.380615
  15 Li:    0.380632
  16 F :   -0.380649
  17 Li:    0.380633

-------------------------------
LOEWDIN REDUCED ORBITAL CHARGES
-------------------------------
  0 F s       :     3.722078  s :     3.722078
      pz      :     1.875048  p :     5.657491
      px      :     1.878165
      py      :     1.904278
      dz2     :     0.000224  d :     0.001021
      dxz     :     0.000020
      dyz     :     0.000043
      dx2y2   :     0.000568
      dxy     :     0.000165
      f0      :     0.000002  f :     0.000026
      f+1     :     0.000001
      f-1     :     0.000006
      f+2     :     0.000003
      f-2     :     0.000000
      f+3     :     0.000007
      f-3     :     0.000007
  1 Lis       :     2.024913  s :     2.024913
      pz      :     0.034337  p :     0.259571
      px      :     0.053832
      py      :     0.171403
      dz2     :     0.038550  d :     0.334883
      dxz     :     0.011558
      dyz     :     0.078984
      dx2y2   :     0.104912
      dxy     :     0.100879
  2 F s       :     3.722094  s :     3.722094
      pz      :     1.875056  p :     5.657509
      px      :     1.888957
      py      :     1.893496
      dz2     :     0.000224  d :     0.001020
      dxz     :     0.000030
      dyz     :     0.000034
      dx2y2   :     0.000177
      dxy     :     0.000556
      f0      :     0.000002  f :     0.000026
      f+1     :     0.000003
      f-1     :     0.000004
      f+2     :     0.000000
      f-2     :     0.000003
      f+3     :     0.000007
      f-3     :     0.000007
  3 Lis       :     2.024913  s :     2.024913
      pz      :     0.034337  p :     0.259571
      px      :     0.150963
      py      :     0.074271
      dz2     :     0.038550  d :     0.334884
      dxz     :     0.067262
      dyz     :     0.023280
      dx2y2   :     0.097055
      dxy     :     0.108736
  4 F s       :     3.722078  s :     3.722078
      pz      :     1.875048  p :     5.657490
      px      :     1.903489
      py      :     1.878953
      dz2     :     0.000224  d :     0.001021
      dxz     :     0.000042
      dyz     :     0.000021
      dx2y2   :     0.000521
      dxy     :     0.000212
      f0      :     0.000002  f :     0.000026
      f+1     :     0.000006
      f-1     :     0.000001
      f+2     :     0.000003
      f-2     :     0.000000
      f+3     :     0.000007
      f-3     :     0.000007
  5 Lis       :     2.024911  s :     2.024911
      pz      :     0.034338  p :     0.259580
      px      :     0.184749
      py      :     0.040494
      dz2     :     0.038551  d :     0.334888
      dxz     :     0.086636
      dyz     :     0.003908
      dx2y2   :     0.111825
      dxy     :     0.093968
  6 F s       :     3.722084  s :     3.722084
      pz      :     1.875051  p :     5.657497
      px      :     1.897749
      py      :     1.884696
      dz2     :     0.000224  d :     0.001020
      dxz     :     0.000037
      dyz     :     0.000026
      dx2y2   :     0.000266
      dxy     :     0.000468
      f0      :     0.000002  f :     0.000026
      f+1     :     0.000005
      f-1     :     0.000002
      f+2     :     0.000001
      f-2     :     0.000002
      f+3     :     0.000007
      f-3     :     0.000007
  7 Lis       :     2.024913  s :     2.024913
      pz      :     0.034336  p :     0.259570
      px      :     0.099264
      py      :     0.125969
      dz2     :     0.038550  d :     0.334882
      dxz     :     0.037613
      dyz     :     0.052929
      dx2y2   :     0.091942
      dxy     :     0.113848
  8 F s       :     3.722090  s :     3.722090
      pz      :     1.875055  p :     5.657506
      px      :     1.881219
      py      :     1.901232
      dz2     :     0.000224  d :     0.001020
      dxz     :     0.000023
      dyz     :     0.000040
      dx2y2   :     0.000402
      dxy     :     0.000331
      f0      :     0.000002  f :     0.000026
      f+1     :     0.000001
      f-1     :     0.000005
      f+2     :     0.000002
      f-2     :     0.000001
      f+3     :     0.000007
      f-3     :     0.000007
  9 Lis       :     2.024914  s :     2.024914
      pz      :     0.034336  p :     0.259564
      px      :     0.035859
      py      :     0.189369
      dz2     :     0.038550  d :     0.334880
      dxz     :     0.001251
      dyz     :     0.089290
      dx2y2   :     0.114553
      dxy     :     0.091235
 10 F s       :     3.722090  s :     3.722090
      pz      :     1.875055  p :     5.657506
      px      :     1.881219
      py      :     1.901232
      dz2     :     0.000224  d :     0.001020
      dxz     :     0.000023
      dyz     :     0.000040
      dx2y2   :     0.000402
      dxy     :     0.000331
      f0      :     0.000002  f :     0.000026
      f+1     :     0.000001
      f-1     :     0.000005
      f+2     :     0.000002
      f-2     :     0.000001
      f+3     :     0.000007
      f-3     :     0.000007
 11 Lis       :     2.024913  s :     2.024913
      pz      :     0.034336  p :     0.259570
      px      :     0.099264
      py      :     0.125969
      dz2     :     0.038550  d :     0.334882
      dxz     :     0.037613
      dyz     :     0.052929
      dx2y2   :     0.091942
      dxy     :     0.113848
 12 F s       :     3.722084  s :     3.722084
      pz      :     1.875051  p :     5.657497
      px      :     1.897749
      py      :     1.884696
      dz2     :     0.000224  d :     0.001020
      dxz     :     0.000037
      dyz     :     0.000026
      dx2y2   :     0.000266
      dxy     :     0.000468
      f0      :     0.000002  f :     0.000026
      f+1     :     0.000005
      f-1     :     0.000002
      f+2     :     0.000001
      f-2     :     0.000002
      f+3     :     0.000007
      f-3     :     0.000007
 13 Lis       :     2.024911  s :     2.024911
      pz      :     0.034338  p :     0.259580
      px      :     0.184749
      py      :     0.040494
      dz2     :     0.038551  d :     0.334888
      dxz     :     0.086636
      dyz     :     0.003908
      dx2y2   :     0.111825
      dxy     :     0.093968
 14 F s       :     3.722078  s :     3.722078
      pz      :     1.875048  p :     5.657490
      px      :     1.903489
      py      :     1.878953
      dz2     :     0.000224  d :     0.001021
      dxz     :     0.000042
      dyz     :     0.000021
      dx2y2   :     0.000521
      dxy     :     0.000212
      f0      :     0.000002  f :     0.000026
      f+1     :     0.000006
      f-1     :     0.000001
      f+2     :     0.000003
      f-2     :     0.000000
      f+3     :     0.000007
      f-3     :     0.000007
 15 Lis       :     2.024913  s :     2.024913
      pz      :     0.034337  p :     0.259571
      px      :     0.150963
      py      :     0.074271
      dz2     :     0.038550  d :     0.334884
      dxz     :     0.067262
      dyz     :     0.023280
      dx2y2   :     0.097055
      dxy     :     0.108736
 16 F s       :     3.722094  s :     3.722094
      pz      :     1.875056  p :     5.657509
      px      :     1.888957
      py      :     1.893496
      dz2     :     0.000224  d :     0.001020
      dxz     :     0.000030
      dyz     :     0.000034
      dx2y2   :     0.000177
      dxy     :     0.000556
      f0      :     0.000002  f :     0.000026
      f+1     :     0.000003
      f-1     :     0.000004
      f+2     :     0.000000
      f-2     :     0.000003
      f+3     :     0.000007
      f-3     :     0.000007
 17 Lis       :     2.024913  s :     2.024913
      pz      :     0.034337  p :     0.259571
      px      :     0.053832
      py      :     0.171403
      dz2     :     0.038550  d :     0.334883
      dxz     :     0.011558
      dyz     :     0.078984
      dx2y2   :     0.104912
      dxy     :     0.100879


                      *****************************
                      * MAYER POPULATION ANALYSIS *
                      *****************************

  NA   - Mulliken gross atomic population
  ZA   - Total nuclear charge
  QA   - Mulliken gross atomic charge
  VA   - Mayer's total valence
  BVA  - Mayer's bonded valence
  FA   - Mayer's free valence

  ATOM       NA         ZA         QA         VA         BVA        FA
  0 F      9.9837     9.0000    -0.9837     0.1116     0.1116     0.0000
  1 Li     2.0164     3.0000     0.9836    -0.1200    -0.1200     0.0000
  2 F      9.9836     9.0000    -0.9836     0.1117     0.1117    -0.0000
  3 Li     2.0164     3.0000     0.9836    -0.1200    -0.1200    -0.0000
  4 F      9.9837     9.0000    -0.9837     0.1116     0.1116    -0.0000
  5 Li     2.0164     3.0000     0.9836    -0.1200    -0.1200     0.0000
  6 F      9.9836     9.0000    -0.9836     0.1117     0.1117     0.0000
  7 Li     2.0164     3.0000     0.9836    -0.1200    -0.1200     0.0000
  8 F      9.9836     9.0000    -0.9836     0.1117     0.1117     0.0000
  9 Li     2.0164     3.0000     0.9836    -0.1200    -0.1200    -0.0000
 10 F      9.9836     9.0000    -0.9836     0.1117     0.1117    -0.0000
 11 Li     2.0164     3.0000     0.9836    -0.1200    -0.1200     0.0000
 12 F      9.9836     9.0000    -0.9836     0.1117     0.1117    -0.0000
 13 Li     2.0164     3.0000     0.9836    -0.1200    -0.1200    -0.0000
 14 F      9.9837     9.0000    -0.9837     0.1116     0.1116    -0.0000
 15 Li     2.0164     3.0000     0.9836    -0.1200    -0.1200     0.0000
 16 F      9.9836     9.0000    -0.9836     0.1117     0.1117    -0.0000
 17 Li     2.0164     3.0000     0.9836    -0.1200    -0.1200     0.0000

  Mayer bond orders larger than 0.100000
B(  0-F ,  2-F ) :   0.1214 B(  0-F , 16-F ) :   0.1214 B(  2-F ,  4-F ) :   0.1214 
B(  4-F ,  6-F ) :   0.1214 B(  6-F ,  8-F ) :   0.1214 B(  8-F , 10-F ) :   0.1214 
B( 10-F , 12-F ) :   0.1214 B( 12-F , 14-F ) :   0.1214 B( 14-F , 16-F ) :   0.1214 


-------
TIMINGS
-------

Total SCF time: 0 days 0 hours 27 min 34 sec 

Total time                  ....    1654.890 sec
Sum of individual times     ....    1652.911 sec  ( 99.9%)

Fock matrix formation       ....    1647.206 sec  ( 99.5%)
Diagonalization             ....       0.792 sec  (  0.0%)
Density matrix formation    ....       0.135 sec  (  0.0%)
Population analysis         ....       0.151 sec  (  0.0%)
Initial guess               ....       2.166 sec  (  0.1%)
Orbital Transformation      ....       0.000 sec  (  0.0%)
Orbital Orthonormalization  ....       0.000 sec  (  0.0%)
DIIS solution               ....       0.583 sec  (  0.0%)
SOSCF solution              ....       0.623 sec  (  0.0%)

-------------------------   --------------------
FINAL SINGLE POINT ENERGY      -963.533470614612
-------------------------   --------------------

------------------------------------------------------------------------------
                         ORCA SCF GRADIENT CALCULATION
------------------------------------------------------------------------------

Gradient of the Hartree-Fock SCF energy:
Hartree-Fock type                ... RHF
Number of operators              ...    1
Number of atoms                  ...   18
Basis set dimensions             ...  522
Integral neglect threshold       ... 1.0e-12
Integral primitive cutoff        ... 1.0e-14

Nuclear repulsion gradient       ... done
One Electron Gradient            ... done
Pre-screening matrix             ... done
Starting the two electron gradient:
Two electron gradient done

------------------
CARTESIAN GRADIENT
------------------

   1   F   :    0.000645604    0.000000000   -0.000000000
   2   Li  :    0.000243931    0.000079034    0.000000000
   3   F   :    0.000493850    0.000414688    0.000000000
   4   Li  :    0.000120460    0.000226406    0.000000000
   5   F   :    0.000111945    0.000635669   -0.000000000
   6   Li  :   -0.000041111    0.000250827    0.000000000
   7   F   :   -0.000322256    0.000558994   -0.000000000
   8   Li  :   -0.000194376    0.000167810    0.000000000
   9   F   :   -0.000606431    0.000220884    0.000000000
  10   Li  :   -0.000257630    0.000000000   -0.000000000
  11   F   :   -0.000606431   -0.000220885    0.000000000
  12   Li  :   -0.000194376   -0.000167810    0.000000000
  13   F   :   -0.000322256   -0.000558994    0.000000000
  14   Li  :   -0.000041111   -0.000250827   -0.000000000
  15   F   :    0.000111945   -0.000635669    0.000000000
  16   Li  :    0.000120460   -0.000226406   -0.000000000
  17   F   :    0.000493850   -0.000414688    0.000000000
  18   Li  :    0.000243931   -0.000079034   -0.000000000

Difference to translation invariance:
           :    0.0000000000    0.0000000000    0.0000000000

Norm of the cartesian gradient     ...    0.0020827799
RMS gradient                       ...    0.0002834305
MAX gradient                       ...    0.0006456041

-------
TIMINGS
-------

Total SCF gradient time            ...      553.333 sec

One electron gradient       ....       1.536 sec  (  0.3%)
Prescreening matrices       ....       1.261 sec  (  0.2%)
Two electron gradient       ....     550.126 sec  ( 99.4%)
------------------------------------------------------------------------------
                         ORCA GEOMETRY RELAXATION STEP
------------------------------------------------------------------------------

Reading the OPT-File                    .... done
Getting information on internals        .... done
Copying old internal coords+grads       .... done
Making the new internal coordinates     .... (new redundants).... done
Validating the new internal coordinates .... (new redundants).... done
Calculating the B-matrix                .... done
Calculating the G,G- and P matrices     .... done
Transforming gradient to internals      .... done
Projecting the internal gradient        .... done
Number of atoms                         ....  18
Number of internal coordinates          ....  54
Current Energy                          ....  -963.533470615 Eh
Current gradient norm                   ....     0.002082780 Eh/bohr
Maximum allowed component of the step   ....  0.300
Current trust radius                    ....  0.300
Evaluating the initial hessian          ....  (Almloef) done
Projecting the Hessian                  .... done
Forming the augmented Hessian           .... done
Diagonalizing the augmented Hessian     .... done
Last element of RFO vector              ....  0.999977695
Lowest eigenvalues of augmented Hessian:
 -0.000036905  0.007273659  0.007273687  0.007273960  0.007274212
Length of the computed step             ....  0.006679161
The final length of the internal step   ....  0.006679161
Converting the step to cartesian space:
 Initial RMS(Int)=    0.0009089187
Transforming coordinates:
 Iter   0:  RMS(Cart)=    0.0025919344 RMS(Int)=    0.0009089177
 Iter   1:  RMS(Cart)=    0.0000000381 RMS(Int)=    0.0000000401
done
Storing new coordinates                 .... done

                                .--------------------.
          ----------------------|Geometry convergence|-------------------------
          Item                value                   Tolerance       Converged
          ---------------------------------------------------------------------
          RMS gradient        0.0007522212            0.0001000000      NO
          MAX gradient        0.0013056189            0.0003000000      NO
          RMS step            0.0009089187            0.0020000000      YES
          MAX step            0.0015743618            0.0040000000      YES
          ........................................................
          Max(Bonds)      0.0008      Max(Angles)    0.01
          Max(Dihed)        0.00      Max(Improp)    0.00
          ---------------------------------------------------------------------

The optimization has not yet converged - more geometry cycles are needed


    ---------------------------------------------------------------------------
                         Redundant Internal Coordinates
                            (Angstroem and degrees)

        Definition                    Value    dE/dq     Step     New-Value
    ----------------------------------------------------------------------------
     1. B(Li  1,F   0)                1.6929  0.001296 -0.0008    1.6921   
     2. B(F   2,Li  1)                1.6929  0.001306 -0.0008    1.6921   
     3. B(Li  3,F   2)                1.6929  0.001305 -0.0008    1.6921   
[...]
      3       0.027460   0.005478  -0.173003  -0.158609  -0.022790   0.069880
      4       0.215873  -0.106730  -0.043809   0.432852   0.078194  -0.218535
      5       0.000000  -0.000000  -0.000000   0.000000   0.000000  -0.000000
      6      -0.222421   0.109227   0.249179  -0.015697  -0.035135   0.052526
      7       0.219783  -0.097127  -0.309028  -0.032376   0.023289  -0.025348
      8       0.000000  -0.000000  -0.000000  -0.000000   0.000000  -0.000000
      9      -0.099699  -0.032656   0.123048   0.352420   0.200251  -0.396849
     10      -0.172568   0.123027   0.109202  -0.200436  -0.121092   0.229226
     11       0.000000  -0.000000  -0.000000  -0.000000  -0.000000   0.000000
     12       0.301500  -0.270509  -0.316038  -0.022583   0.036380   0.048232
     13      -0.082817   0.030115   0.070553   0.031201   0.016414  -0.032850
     14      -0.000000  -0.000000   0.000000   0.000000   0.000000  -0.000000
     15       0.173162   0.089659  -0.058154  -0.295619  -0.353726   0.224048
     16       0.131758  -0.124514  -0.127923  -0.056361  -0.058851   0.048762
     17      -0.000000   0.000000   0.000000  -0.000000  -0.000000   0.000000
     18      -0.029153   0.311200   0.192581   0.041016  -0.003488  -0.092132
     19       0.050495   0.192784   0.088574   0.003493  -0.036987  -0.053208
     20       0.000000   0.000000   0.000000   0.000000  -0.000000  -0.000000
     21      -0.200659  -0.152617   0.015464   0.099005   0.284111   0.154262
     22      -0.084137   0.081740   0.114283   0.125948   0.335795   0.169732
     23      -0.000000   0.000000   0.000000   0.000000   0.000000   0.000000
     24      -0.079061  -0.138577  -0.045970  -0.020196  -0.029793  -0.004326
     25      -0.302487  -0.392299  -0.061164  -0.037742   0.018801   0.058149
     26       0.000000  -0.000000  -0.000000  -0.000000  -0.000000  -0.000000
     27       0.199249   0.180278  -0.000065   0.005421  -0.000000  -0.000000
     28      -0.000000  -0.000038  -0.103741  -0.000043  -0.468117  -0.458155
     29      -0.000000  -0.000000   0.000000  -0.000000   0.000000   0.000000
     30      -0.079061  -0.138544   0.046071  -0.020190   0.029796   0.004326
     31       0.302486   0.392254  -0.061449   0.037745   0.018794   0.058149
     32      -0.000000  -0.000000   0.000000  -0.000000   0.000000  -0.000000
     33      -0.200659  -0.152629  -0.015353   0.098954  -0.284129  -0.154264
     34       0.084137  -0.081657   0.114343  -0.125887   0.335818   0.169734
     35      -0.000000  -0.000000  -0.000000   0.000000  -0.000000  -0.000000
     36      -0.029153   0.311060  -0.192806   0.041017   0.003480   0.092132
     37      -0.050495  -0.192720   0.088713  -0.003499  -0.036986  -0.053208
     38       0.000000   0.000000  -0.000000  -0.000000   0.000000   0.000000
     39       0.173162   0.089701   0.058089  -0.295555   0.353780  -0.224046
     40      -0.131758   0.124421  -0.128014   0.056350  -0.058861   0.048762
     41      -0.000000   0.000000  -0.000000  -0.000000   0.000000   0.000000
     42       0.301500  -0.270280   0.316234  -0.022590  -0.036375  -0.048232
     43       0.082817  -0.030064   0.070575  -0.031198   0.016420  -0.032851
     44      -0.000000   0.000000  -0.000000   0.000000  -0.000000   0.000000
     45      -0.099699  -0.032745  -0.123025   0.352384  -0.200315   0.396849
     46       0.172568  -0.122948   0.109291   0.200414  -0.121128   0.229226
     47       0.000000   0.000000   0.000000  -0.000000   0.000000  -0.000000
     48      -0.222421   0.109046  -0.249258  -0.015690   0.035138  -0.052526
     49      -0.219782   0.096903  -0.309099   0.032380   0.023283  -0.025348
     50       0.000000  -0.000000   0.000000   0.000000  -0.000000   0.000000
     51       0.027460   0.005604   0.172999  -0.158605   0.022818  -0.069882
     52      -0.215873   0.106698  -0.043886  -0.432838   0.078273  -0.218538
     53       0.000000  -0.000000   0.000000   0.000000  -0.000000   0.000000
                 48         49         50         51         52         53    
      0      -0.027675   0.000000   0.000000   0.018219  -0.008500  -0.000000
      1       0.000000   0.112851  -0.139692   0.000000  -0.000000   0.155074
      2       0.000000   0.000000  -0.000000  -0.000000   0.000000   0.000000
      3       0.140689   0.107118  -0.113023  -0.104956   0.054617   0.142148
      4      -0.371045  -0.294164   0.326138   0.269531  -0.142357  -0.393174
      5      -0.000000  -0.000000   0.000000   0.000000  -0.000000  -0.000000
      6      -0.048603  -0.072684   0.001977   0.090706  -0.069132  -0.072221
      7       0.079435   0.086585  -0.030230  -0.103205   0.072297   0.094540
      8       0.000000   0.000000  -0.000000  -0.000000   0.000000   0.000000
      9      -0.005387   0.271857   0.197887  -0.335055   0.334633   0.191586
     10      -0.009025  -0.157022  -0.105934   0.198369  -0.191691  -0.113441
     11       0.000000  -0.000000  -0.000000   0.000000  -0.000000  -0.000000
     12       0.093177  -0.111522  -0.130018   0.043909  -0.150716  -0.025130
     13      -0.002388   0.019671   0.016603  -0.025132   0.025105   0.012917
     14       0.000000   0.000000   0.000000  -0.000000   0.000000   0.000000
     15      -0.391814   0.309312   0.416457   0.150469   0.431562  -0.075475
     16      -0.063768   0.054552   0.070550   0.034522   0.075625  -0.016091
     17      -0.000000   0.000000   0.000000   0.000000   0.000000   0.000000
     18       0.013835  -0.097995  -0.068208  -0.100140  -0.118409   0.063470
     19      -0.023966  -0.056569  -0.021182  -0.068333  -0.063482   0.045140
     20      -0.000000  -0.000000  -0.000000  -0.000000  -0.000000   0.000000
     21       0.251082   0.201474  -0.044033   0.285872   0.185374  -0.217747
     22       0.307487   0.240157  -0.065313   0.338518   0.217669  -0.262355
     23       0.000000   0.000000  -0.000000   0.000000   0.000000  -0.000000
     24      -0.044508  -0.038632   0.025580  -0.043772  -0.025614   0.047134
     25      -0.081870  -0.106122   0.104525  -0.079514  -0.047110   0.138027
     26      -0.000000  -0.000000   0.000000  -0.000000  -0.000000   0.000000
     27       0.010511   0.000000   0.000000   0.008366   0.002777   0.000000
     28      -0.000002   0.313002  -0.450166   0.000000   0.000000  -0.445241
     29      -0.000000  -0.000000   0.000000  -0.000000  -0.000000   0.000000
     30      -0.044508   0.038632  -0.025580  -0.043772  -0.025614  -0.047134
     31       0.081871  -0.106122   0.104525   0.079514   0.047109   0.138027
     32      -0.000000   0.000000  -0.000000  -0.000000  -0.000000  -0.000000
     33       0.251080  -0.201474   0.044033   0.285872   0.185374   0.217747
     34      -0.307486   0.240157  -0.065314  -0.338518  -0.217669  -0.262355
     35       0.000000  -0.000000   0.000000   0.000000   0.000000   0.000000
     36       0.013836   0.097995   0.068208  -0.100140  -0.118409  -0.063470
     37       0.023965  -0.056569  -0.021182   0.068333   0.063482   0.045140
     38      -0.000000   0.000000   0.000000  -0.000000  -0.000000  -0.000000
     39      -0.391816  -0.309312  -0.416456   0.150469   0.431562   0.075476
     40       0.063768   0.054552   0.070550  -0.034522  -0.075625  -0.016091
     41      -0.000000  -0.000000  -0.000000  -0.000000   0.000000  -0.000000
     42       0.093177   0.111522   0.130019   0.043909  -0.150716   0.025130
     43       0.002388   0.019671   0.016603   0.025132  -0.025105   0.012917
     44      -0.000000  -0.000000  -0.000000  -0.000000   0.000000  -0.000000
     45      -0.005384  -0.271857  -0.197887  -0.335055   0.334633  -0.191586
     46       0.009027  -0.157022  -0.105934  -0.198369   0.191692  -0.113440
     47       0.000000   0.000000   0.000000   0.000000  -0.000000   0.000000
     48      -0.048604   0.072684  -0.001977   0.090706  -0.069133   0.072221
     49      -0.079436   0.086585  -0.030230   0.103205  -0.072298   0.094540
     50       0.000000  -0.000000   0.000000  -0.000000   0.000000  -0.000000
     51       0.140688  -0.107118   0.113023  -0.104956   0.054617  -0.142147
     52       0.371043  -0.294164   0.326137  -0.269532   0.142358  -0.393174
     53      -0.000000   0.000000  -0.000000   0.000000  -0.000000   0.000000


-----------
IR SPECTRUM
-----------

 Mode    freq (cm**-1)   T**2         TX         TY         TZ
-------------------------------------------------------------------
   6:        13.26    0.000000  ( -0.000000   0.000070  -0.000000)
   7:        13.26    0.000000  (  0.000023   0.000000  -0.000000)
   8:        16.39    0.000000  ( -0.000000   0.000000  -0.000000)
   9:        16.39    0.000000  ( -0.000000  -0.000000   0.000015)
  10:        35.93    0.000000  ( -0.000000  -0.000146  -0.000000)
  11:        35.93    0.000000  (  0.000195   0.000000   0.000000)
  12:        37.96    0.000000  (  0.000000  -0.000000  -0.000000)
  13:        37.96    0.000000  (  0.000000   0.000000  -0.000008)
  14:        59.72    0.000000  (  0.000000   0.000000  -0.000000)
  15:        59.72    0.000000  ( -0.000000   0.000000   0.000127)
  16:        60.40    0.000000  ( -0.000000   0.000055  -0.000000)
  17:        60.40    0.000000  (  0.000414  -0.000000   0.000000)
  18:       140.46    0.000001  (  0.000995   0.000001  -0.000000)
  19:       140.46    0.000005  ( -0.000001   0.002322   0.000000)
  20:       152.37    0.000000  (  0.000000  -0.000000   0.000294)
  21:       152.37    0.000000  ( -0.000000  -0.000000  -0.000000)
  22:       152.55    0.000000  ( -0.000108   0.000000   0.000000)
  23:       176.12    0.000018  ( -0.000000   0.004274  -0.000000)
  24:       176.13    0.000035  (  0.005942   0.000000   0.000000)
  25:       186.45    0.000000  ( -0.000000   0.000000   0.000000)
  26:       186.46    0.000000  ( -0.000000  -0.000000   0.000220)
  27:       204.77   55.102749  (  7.423123  -0.000004   0.000000)
  28:       204.79   55.107380  ( -0.000004  -7.423435  -0.000000)
  29:       216.23    0.000000  (  0.000000  -0.000214   0.000000)
  30:       216.26    0.000003  ( -0.001688  -0.000000   0.000000)
  31:       229.94    0.000000  ( -0.000000   0.000000   0.000000)
  32:       229.95    0.000000  (  0.000000   0.000000  -0.000226)
  33:       270.84    0.000000  (  0.000000  -0.000000   0.000417)
  34:       270.84    0.000000  ( -0.000000  -0.000000   0.000000)
  35:       274.80  480.460675  ( 21.919413   0.000016   0.000000)
  36:       274.81  480.337198  ( -0.000016  21.916596   0.000000)
  37:       297.15  1081.739366  ( -0.000000   0.000000  32.889806)
  38:       302.01    0.000000  ( -0.000325   0.000000   0.000000)
  39:       334.85    0.000000  ( -0.000000  -0.000471  -0.000000)
  40:       334.86    0.000000  (  0.000551  -0.000000   0.000000)
  41:       439.20    0.000000  (  0.000000   0.000428   0.000000)
  42:       439.20    0.000004  ( -0.002077   0.000000   0.000000)
  43:       509.73    0.000000  (  0.000647  -0.000001  -0.000000)
  44:       509.73    0.000005  ( -0.000000  -0.002228  -0.000000)
  45:       837.19    0.000009  ( -0.003052   0.000000   0.000000)
  46:       837.19    0.000000  (  0.000000   0.000543  -0.000000)
  47:       864.98    0.000011  (  0.000000   0.003245   0.000000)
  48:       864.99    0.000032  ( -0.005639   0.000000  -0.000000)
  49:       886.36    0.000001  (  0.000000   0.000792   0.000000)
  50:       889.88    0.000130  (  0.000000   0.011389   0.000000)
  51:       889.88    0.000269  (  0.016405   0.000000   0.000000)
  52:       895.09  1011.391117  ( 31.802376   0.000029  -0.000000)
  53:       895.10  1011.611678  (  0.000029 -31.805843   0.000000)

The first frequency considered to be a vibration is 6
The total number of vibrations considered is 48


--------------------------
THERMOCHEMISTRY AT 298.15K
--------------------------

Temperature         ... 298.15 K
Pressure            ... 1.00 atm
Total Mass          ... 233.45 AMU

Throughout the following assumptions are being made:
  (1) The electronic state is orbitally nondegenerate
  (2) There are no thermally accessible electronically excited states
  (3) Hindered rotations indicated by low frequency modes are not
      treated as such but are treated as vibrations and this may
      cause some error
  (4) All equations used are the standard statistical mechanics
      equations for an ideal gas
  (5) All vibrations are strictly harmonic

freq.      13.26  E(vib)   ...       0.57 
freq.      13.26  E(vib)   ...       0.57 
freq.      16.39  E(vib)   ...       0.57 
freq.      16.39  E(vib)   ...       0.57 
freq.      35.93  E(vib)   ...       0.54 
freq.      35.93  E(vib)   ...       0.54 
freq.      37.96  E(vib)   ...       0.54 
freq.      37.96  E(vib)   ...       0.54 
freq.      59.72  E(vib)   ...       0.51 
freq.      59.72  E(vib)   ...       0.51 
freq.      60.40  E(vib)   ...       0.51 
freq.      60.40  E(vib)   ...       0.51 
freq.     140.46  E(vib)   ...       0.41 
freq.     140.46  E(vib)   ...       0.41 
freq.     152.37  E(vib)   ...       0.40 
freq.     152.37  E(vib)   ...       0.40 
freq.     152.55  E(vib)   ...       0.40 
freq.     176.12  E(vib)   ...       0.38 
freq.     176.13  E(vib)   ...       0.38 
freq.     186.45  E(vib)   ...       0.37 
freq.     186.46  E(vib)   ...       0.37 
freq.     204.77  E(vib)   ...       0.35 
freq.     204.79  E(vib)   ...       0.35 
freq.     216.23  E(vib)   ...       0.34 
freq.     216.26  E(vib)   ...       0.34 
freq.     229.94  E(vib)   ...       0.32 
freq.     229.95  E(vib)   ...       0.32 
freq.     270.84  E(vib)   ...       0.29 
freq.     270.84  E(vib)   ...       0.29 
freq.     274.80  E(vib)   ...       0.28 
freq.     274.81  E(vib)   ...       0.28 
freq.     297.15  E(vib)   ...       0.27 
freq.     302.01  E(vib)   ...       0.26 
freq.     334.85  E(vib)   ...       0.24 
freq.     334.86  E(vib)   ...       0.24 
freq.     439.20  E(vib)   ...       0.17 
freq.     439.20  E(vib)   ...       0.17 
freq.     509.73  E(vib)   ...       0.14 
freq.     509.73  E(vib)   ...       0.14 
freq.     837.19  E(vib)   ...       0.04 
freq.     837.19  E(vib)   ...       0.04 
freq.     864.98  E(vib)   ...       0.04 
freq.     864.99  E(vib)   ...       0.04 
freq.     886.36  E(vib)   ...       0.04 
freq.     889.88  E(vib)   ...       0.04 
freq.     889.88  E(vib)   ...       0.04 
freq.     895.09  E(vib)   ...       0.03 
freq.     895.10  E(vib)   ...       0.03 

------------
INNER ENERGY
------------

The inner energy is: U= E(el) + E(ZPE) + E(vib) + E(rot) + E(trans)
    E(el)   - is the total energy from the electronic structure calculation
              = E(kin-el) + E(nuc-el) + E(el-el) + E(nuc-nuc)
    E(ZPE)  - the the zero temperature vibrational energy from the frequency calculation
    E(vib)  - the the finite temperature correction to E(ZPE) due to population
              of excited vibrational states
    E(rot)  - is the rotational thermal energy
    E(trans)- is the translational thermal energy

Summary of contributions to the inner energy U:
Electronic energy                ...   -963.53363102 Eh
Zero point energy                ...      0.03492725 Eh      21.92 kcal/mol
Thermal vibrational correction   ...      0.02409717 Eh      15.12 kcal/mol
Thermal rotational correction    ...      0.00141627 Eh       0.89 kcal/mol
Thermal translational correction ...      0.00141627 Eh       0.89 kcal/mol
-----------------------------------------------------------------------
Total thermal energy                   -963.47177407 Eh


Summary of corrections to the electronic energy:
(perhaps to be used in another calculation)
Total thermal correction                  0.02692971 Eh      16.90 kcal/mol
Non-thermal (ZPE) correction              0.03492725 Eh      21.92 kcal/mol
-----------------------------------------------------------------------
Total correction                          0.06185696 Eh      38.82 kcal/mol


--------
ENTHALPY
--------

The enthalpy is H = U + kB*T
                kB is Boltzmann's constant
Total free energy                 ...   -963.47177407 Eh 
Thermal Enthalpy correction       ...      0.00094421 Eh       0.59 kcal/mol
-----------------------------------------------------------------------
Total Enthalpy                    ...   -963.47082986 Eh


Note: Rotational entropy computed according to Herzberg 
Infrared and Raman Spectra, Chapter V,1, Van Nostrand Reinhold, 1945 
Point Group:  C2v, Symmetry Number:   2  
Rotational constants in cm-1:     0.006101     0.006100     0.003050 

Vibrational entropy computed according to the QRRHO of S. Grimme
Chem.Eur.J. 2012 18 9955


-------
ENTROPY
-------

The entropy contributions are T*S = T*(S(el)+S(vib)+S(rot)+S(trans))
     S(el)   - electronic entropy
     S(vib)  - vibrational entropy
     S(rot)  - rotational entropy
     S(trans)- translational entropy
The entropies will be listed as mutliplied by the temperature to get
units of energy

Electronic entropy                ...      0.00000000 Eh      0.00 kcal/mol
Vibrational entropy               ...      0.04702552 Eh     29.51 kcal/mol
Rotational entropy                ...      0.01640565 Eh     10.29 kcal/mol
Translational entropy             ...      0.02007196 Eh     12.60 kcal/mol
-----------------------------------------------------------------------
Final entropy term                ...      0.08350313 Eh     52.40 kcal/mol

In case the symmetry of your molecule has not been determined correctly
or in case you have a reason to use a different symmetry number we print 
out the resulting rotational entropy values for sn=1,12 :
 --------------------------------------------------------
|  sn= 1 | S(rot)=       0.01706010 Eh     10.71 kcal/mol|
|  sn= 2 | S(rot)=       0.01640565 Eh     10.29 kcal/mol|
|  sn= 3 | S(rot)=       0.01602281 Eh     10.05 kcal/mol|
|  sn= 4 | S(rot)=       0.01575119 Eh      9.88 kcal/mol|
|  sn= 5 | S(rot)=       0.01554050 Eh      9.75 kcal/mol|
|  sn= 6 | S(rot)=       0.01536836 Eh      9.64 kcal/mol|
|  sn= 7 | S(rot)=       0.01522281 Eh      9.55 kcal/mol|
|  sn= 8 | S(rot)=       0.01509673 Eh      9.47 kcal/mol|
|  sn= 9 | S(rot)=       0.01498552 Eh      9.40 kcal/mol|
|  sn=10 | S(rot)=       0.01488605 Eh      9.34 kcal/mol|
|  sn=11 | S(rot)=       0.01479606 Eh      9.28 kcal/mol|
|  sn=12 | S(rot)=       0.01471390 Eh      9.23 kcal/mol|
 --------------------------------------------------------


-------------------
GIBBS FREE ENERGY
-------------------

The Gibbs free energy is G = H - T*S

Total enthalpy                    ...   -963.47082986 Eh 
Total entropy correction          ...     -0.08350313 Eh    -52.40 kcal/mol
-----------------------------------------------------------------------
Final Gibbs free energy         ...   -963.55433298 Eh

For completeness - the Gibbs free energy minus the electronic energy
G-E(el)                           ...     -0.02070196 Eh    -12.99 kcal/mol


Timings for individual modules:

Sum of individual times         ...   109964.060 sec (=1832.734 min)
GTO integral calculation        ...        3.909 sec (=   0.065 min)   0.0 %
SCF iterations                  ...     3991.446 sec (=  66.524 min)   3.6 %
SCF Gradient evaluation         ...     1648.413 sec (=  27.474 min)   1.5 %
Geometry relaxation             ...        0.561 sec (=   0.009 min)   0.0 %
Analytical frequency calculation...   104319.731 sec (=1738.662 min)  94.9 %
                             ****ORCA TERMINATED NORMALLY****
TOTAL RUN TIME: 1 days 6 hours 32 minutes 46 seconds 269 msec
